<?xml version="1.0"?>
<VTKFile type="UnstructuredGrid" version="0.1" byte_order="BigEndian">
<UnstructuredGrid GhostLevel="0">
<Piece NumberOfPoints="4080" NumberOfCells="510" ><Points>
<DataArray type="Float64" NumberOfComponents="3" format="ascii">
2.34568e+06	1.23757e+06	100	2.34568e+06	1.23757e+06	50	2.34593e+06	1.23757e+06	100	2.34593e+06	1.23757e+06	50	2.34593e+06	1.23742e+06	100	2.34593e+06	1.23742e+06	50	2.34568e+06	1.23742e+06	100	2.34568e+06	1.23742e+06	50	2.34593e+06	1.23757e+06	100	2.34593e+06	1.23757e+06	50	2.34618e+06	1.23757e+06	100	2.34618e+06	1.23757e+06	50	2.34618e+06	1.23742e+06	100	2.34618e+06	1.23742e+06	50	2.34593e+06	1.23742e+06	100	2.34593e+06	1.23742e+06	50	2.34618e+06	1.23757e+06	100	2.34618e+06	1.23757e+06	50	2.34643e+06	1.23757e+06	100	2.34643e+06	1.23757e+06	50	2.34643e+06	1.23742e+06	100	2.34643e+06	1.23742e+06	50	2.34618e+06	1.23742e+06	100	2.34618e+06	1.23742e+06	50	2.34643e+06	1.23757e+06	100	2.34643e+06	1.23757e+06	50	2.34668e+06	1.23757e+06	100	2.34668e+06	1.23757e+06	50	2.34668e+06	1.23742e+06	100	2.34668e+06	1.23742e+06	50	2.34643e+06	1.23742e+06	100	2.34643e+06	1.23742e+06	50	2.34668e+06	1.23757e+06	100	2.34668e+06	1.23757e+06	50	2.34693e+06	1.23757e+06	100	2.34693e+06	1.23757e+06	50	2.34693e+06	1.23742e+06	100	2.34693e+06	1.23742e+06	50	2.34668e+06	1.23742e+06	100	2.34668e+06	1.23742e+06	50	2.34693e+06	1.23757e+06	100	2.34693e+06	1.23757e+06	50	2.34718e+06	1.23757e+06	100	2.34718e+06	1.23757e+06	50	2.34718e+06	1.23742e+06	100	2.34718e+06	1.23742e+06	50	2.34693e+06	1.23742e+06	100	2.34693e+06	1.23742e+06	50	2.34718e+06	1.23757e+06	100	2.34718e+06	1.23757e+06	50	2.34743e+06	1.23757e+06	100	2.34743e+06	1.23757e+06	50	2.34743e+06	1.23742e+06	100	2.34743e+06	1.23742e+06	50	2.34718e+06	1.23742e+06	100	2.34718e+06	1.23742e+06	50	2.34743e+06	1.23757e+06	100	2.34743e+06	1.23757e+06	50	2.34768e+06	1.23757e+06	100	2.34768e+06	1.23757e+06	50	2.34768e+06	1.23742e+06	100	2.34768e+06	1.23742e+06	50	2.34743e+06	1.23742e+06	100	2.34743e+06	1.23742e+06	50	2.34768e+06	1.23757e+06	100	2.34768e+06	1.23757e+06	50	2.34793e+06	1.23757e+06	100	2.34793e+06	1.23757e+06	50	2.34793e+06	1.23742e+06	100	2.34793e+06	1.23742e+06	50	2.34768e+06	1.23742e+06	100	2.34768e+06	1.23742e+06	50	2.34793e+06	1.23757e+06	100	2.34793e+06	1.23757e+06	50	2.34818e+06	1.23757e+06	100	2.34818e+06	1.23757e+06	50	2.34818e+06	1.23742e+06	100	2.34818e+06	1.23742e+06	50	2.34793e+06	1.23742e+06	100	2.34793e+06	1.23742e+06	50	2.34818e+06	1.23757e+06	100	2.34818e+06	1.23757e+06	50	2.34843e+06	1.23757e+06	100	2.34843e+06	1.23757e+06	50	2.34843e+06	1.23742e+06	100	2.34843e+06	1.23742e+06	50	2.34818e+06	1.23742e+06	100	2.34818e+06	1.23742e+06	50	2.34843e+06	1.23757e+06	100	2.34843e+06	1.23757e+06	50	2.34868e+06	1.23757e+06	100	2.34868e+06	1.23757e+06	50	2.34868e+06	1.23742e+06	100	2.34868e+06	1.23742e+06	50	2.34843e+06	1.23742e+06	100	2.34843e+06	1.23742e+06	50	2.34868e+06	1.23757e+06	100	2.34868e+06	1.23757e+06	50	2.34893e+06	1.23757e+06	100	2.34893e+06	1.23757e+06	50	2.34893e+06	1.23742e+06	100	2.34893e+06	1.23742e+06	50	2.34868e+06	1.23742e+06	100	2.34868e+06	1.23742e+06	50	2.34893e+06	1.23757e+06	100	2.34893e+06	1.23757e+06	50	2.34918e+06	1.23757e+06	100	2.34918e+06	1.23757e+06	50	2.34918e+06	1.23742e+06	100	2.34918e+06	1.23742e+06	50	2.34893e+06	1.23742e+06	100	2.34893e+06	1.23742e+06	50	2.34918e+06	1.23757e+06	100	2.34918e+06	1.23757e+06	50	2.34943e+06	1.23757e+06	100	2.34943e+06	1.23757e+06	50	2.34943e+06	1.23742e+06	100	2.34943e+06	1.23742e+06	50	2.34918e+06	1.23742e+06	100	2.34918e+06	1.23742e+06	50	2.34568e+06	1.23742e+06	97.3684	2.34568e+06	1.23742e+06	47.3684	2.34593e+06	1.23742e+06	97.3684	2.34593e+06	1.23742e+06	47.3684	2.34593e+06	1.23727e+06	97.3684	2.34593e+06	1.23727e+06	47.3684	2.34568e+06	1.23727e+06	97.3684	2.34568e+06	1.23727e+06	47.3684	2.34593e+06	1.23742e+06	97.3684	2.34593e+06	1.23742e+06	47.3684	2.34618e+06	1.23742e+06	97.3684	2.34618e+06	1.23742e+06	47.3684	2.34618e+06	1.23727e+06	97.3684	2.34618e+06	1.23727e+06	47.3684	2.34593e+06	1.23727e+06	97.3684	2.34593e+06	1.23727e+06	47.3684	2.34618e+06	1.23742e+06	97.3684	2.34618e+06	1.23742e+06	47.3684	2.34643e+06	1.23742e+06	97.3684	2.34643e+06	1.23742e+06	47.3684	2.34643e+06	1.23727e+06	97.3684	2.34643e+06	1.23727e+06	47.3684	2.34618e+06	1.23727e+06	97.3684	2.34618e+06	1.23727e+06	47.3684	2.34643e+06	1.23742e+06	97.3684	2.34643e+06	1.23742e+06	47.3684	2.34668e+06	1.23742e+06	97.3684	2.34668e+06	1.23742e+06	47.3684	2.34668e+06	1.23727e+06	97.3684	2.34668e+06	1.23727e+06	47.3684	2.34643e+06	1.23727e+06	97.3684	2.34643e+06	1.23727e+06	47.3684	2.34668e+06	1.23742e+06	97.3684	2.34668e+06	1.23742e+06	47.3684	2.34693e+06	1.23742e+06	97.3684	2.34693e+06	1.23742e+06	47.3684	2.34693e+06	1.23727e+06	97.3684	2.34693e+06	1.23727e+06	47.3684	2.34668e+06	1.23727e+06	97.3684	2.34668e+06	1.23727e+06	47.3684	2.34693e+06	1.23742e+06	97.3684	2.34693e+06	1.23742e+06	47.3684	2.34718e+06	1.23742e+06	97.3684	2.34718e+06	1.23742e+06	47.3684	2.34718e+06	1.23727e+06	97.3684	2.34718e+06	1.23727e+06	47.3684	2.34693e+06	1.23727e+06	97.3684	2.34693e+06	1.23727e+06	47.3684	2.34718e+06	1.23742e+06	97.3684	2.34718e+06	1.23742e+06	47.3684	2.34743e+06	1.23742e+06	97.3684	2.34743e+06	1.23742e+06	47.3684	2.34743e+06	1.23727e+06	97.3684	2.34743e+06	1.23727e+06	47.3684	2.34718e+06	1.23727e+06	97.3684	2.34718e+06	1.23727e+06	47.3684	2.34743e+06	1.23742e+06	97.3684	2.34743e+06	1.23742e+06	47.3684	2.34768e+06	1.23742e+06	97.3684	2.34768e+06	1.23742e+06	47.3684	2.34768e+06	1.23727e+06	97.3684	2.34768e+06	1.23727e+06	47.3684	2.34743e+06	1.23727e+06	97.3684	2.34743e+06	1.23727e+06	47.3684	2.34768e+06	1.23742e+06	97.3684	2.34768e+06	1.23742e+06	47.3684	2.34793e+06	1.23742e+06	97.3684	2.34793e+06	1.23742e+06	47.3684	2.34793e+06	1.23727e+06	97.3684	2.34793e+06	1.23727e+06	47.3684	2.34768e+06	1.23727e+06	97.3684	2.34768e+06	1.23727e+06	47.3684	2.34793e+06	1.23742e+06	97.3684	2.34793e+06	1.23742e+06	47.3684	2.34818e+06	1.23742e+06	97.3684	2.34818e+06	1.23742e+06	47.3684	2.34818e+06	1.23727e+06	97.3684	2.34818e+06	1.23727e+06	47.3684	2.34793e+06	1.23727e+06	97.3684	2.34793e+06	1.23727e+06	47.3684	2.34818e+06	1.23742e+06	97.3684	2.34818e+06	1.23742e+06	47.3684	2.34843e+06	1.23742e+06	97.3684	2.34843e+06	1.23742e+06	47.3684	2.34843e+06	1.23727e+06	97.3684	2.34843e+06	1.23727e+06	47.3684	2.34818e+06	1.23727e+06	97.3684	2.34818e+06	1.23727e+06	47.3684	2.34843e+06	1.23742e+06	97.3684	2.34843e+06	1.23742e+06	47.3684	2.34868e+06	1.23742e+06	97.3684	2.34868e+06	1.23742e+06	47.3684	2.34868e+06	1.23727e+06	97.3684	2.34868e+06	1.23727e+06	47.3684	2.34843e+06	1.23727e+06	97.3684	2.34843e+06	1.23727e+06	47.3684	2.34868e+06	1.23742e+06	97.3684	2.34868e+06	1.23742e+06	47.3684	2.34893e+06	1.23742e+06	97.3684	2.34893e+06	1.23742e+06	47.3684	2.34893e+06	1.23727e+06	97.3684	2.34893e+06	1.23727e+06	47.3684	2.34868e+06	1.23727e+06	97.3684	2.34868e+06	1.23727e+06	47.3684	2.34893e+06	1.23742e+06	97.3684	2.34893e+06	1.23742e+06	47.3684	2.34918e+06	1.23742e+06	97.3684	2.34918e+06	1.23742e+06	47.3684	2.34918e+06	1.23727e+06	97.3684	2.34918e+06	1.23727e+06	47.3684	2.34893e+06	1.23727e+06	97.3684	2.34893e+06	1.23727e+06	47.3684	2.34918e+06	1.23742e+06	97.3684	2.34918e+06	1.23742e+06	47.3684	2.34943e+06	1.23742e+06	97.3684	2.34943e+06	1.23742e+06	47.3684	2.34943e+06	1.23727e+06	97.3684	2.34943e+06	1.23727e+06	47.3684	2.34918e+06	1.23727e+06	97.3684	2.34918e+06	1.23727e+06	47.3684	2.34568e+06	1.23727e+06	94.7368	2.34568e+06	1.23727e+06	44.7368	2.34593e+06	1.23727e+06	94.7368	2.34593e+06	1.23727e+06	44.7368	2.34593e+06	1.23712e+06	94.7368	2.34593e+06	1.23712e+06	44.7368	2.34568e+06	1.23712e+06	94.7368	2.34568e+06	1.23712e+06	44.7368	2.34593e+06	1.23727e+06	94.7368	2.34593e+06	1.23727e+06	44.7368	2.34618e+06	1.23727e+06	94.7368	2.34618e+06	1.23727e+06	44.7368	2.34618e+06	1.23712e+06	94.7368	2.34618e+06	1.23712e+06	44.7368	2.34593e+06	1.23712e+06	94.7368	2.34593e+06	1.23712e+06	44.7368	2.34618e+06	1.23727e+06	94.7368	2.34618e+06	1.23727e+06	44.7368	2.34643e+06	1.23727e+06	94.7368	2.34643e+06	1.23727e+06	44.7368	2.34643e+06	1.23712e+06	94.7368	2.34643e+06	1.23712e+06	44.7368	2.34618e+06	1.23712e+06	94.7368	2.34618e+06	1.23712e+06	44.7368	2.34643e+06	1.23727e+06	94.7368	2.34643e+06	1.23727e+06	44.7368	2.34668e+06	1.23727e+06	94.7368	2.34668e+06	1.23727e+06	44.7368	2.34668e+06	1.23712e+06	94.7368	2.34668e+06	1.23712e+06	44.7368	2.34643e+06	1.23712e+06	94.7368	2.34643e+06	1.23712e+06	44.7368	2.34668e+06	1.23727e+06	94.7368	2.34668e+06	1.23727e+06	44.7368	2.34693e+06	1.23727e+06	94.7368	2.34693e+06	1.23727e+06	44.7368	2.34693e+06	1.23712e+06	94.7368	2.34693e+06	1.23712e+06	44.7368	2.34668e+06	1.23712e+06	94.7368	2.34668e+06	1.23712e+06	44.7368	2.34693e+06	1.23727e+06	94.7368	2.34693e+06	1.23727e+06	44.7368	2.34718e+06	1.23727e+06	94.7368	2.34718e+06	1.23727e+06	44.7368	2.34718e+06	1.23712e+06	94.7368	2.34718e+06	1.23712e+06	44.7368	2.34693e+06	1.23712e+06	94.7368	2.34693e+06	1.23712e+06	44.7368	2.34718e+06	1.23727e+06	94.7368	2.34718e+06	1.23727e+06	44.7368	2.34743e+06	1.23727e+06	94.7368	2.34743e+06	1.23727e+06	44.7368	2.34743e+06	1.23712e+06	94.7368	2.34743e+06	1.23712e+06	44.7368	2.34718e+06	1.23712e+06	94.7368	2.34718e+06	1.23712e+06	44.7368	2.34743e+06	1.23727e+06	94.7368	2.34743e+06	1.23727e+06	44.7368	2.34768e+06	1.23727e+06	94.7368	2.34768e+06	1.23727e+06	44.7368	2.34768e+06	1.23712e+06	94.7368	2.34768e+06	1.23712e+06	44.7368	2.34743e+06	1.23712e+06	94.7368	2.34743e+06	1.23712e+06	44.7368	2.34768e+06	1.23727e+06	94.7368	2.34768e+06	1.23727e+06	44.7368	2.34793e+06	1.23727e+06	94.7368	2.34793e+06	1.23727e+06	44.7368	2.34793e+06	1.23712e+06	94.7368	2.34793e+06	1.23712e+06	44.7368	2.34768e+06	1.23712e+06	94.7368	2.34768e+06	1.23712e+06	44.7368	2.34793e+06	1.23727e+06	94.7368	2.34793e+06	1.23727e+06	44.7368	2.34818e+06	1.23727e+06	94.7368	2.34818e+06	1.23727e+06	44.7368	2.34818e+06	1.23712e+06	94.7368	2.34818e+06	1.23712e+06	44.7368	2.34793e+06	1.23712e+06	94.7368	2.34793e+06	1.23712e+06	44.7368	2.34818e+06	1.23727e+06	94.7368	2.34818e+06	1.237
[...]
<CellData Scalars="scalars">
<DataArray type="Int32" Name="nodeid" format="ascii">1	2	3	4	5	6	7	8	9	10	11	12	13	14	15	16	17	18	19	20	21	22	23	24	25	26	27	28	29	30	31	32	33	34	35	36	37	38	39	40	41	42	43	44	45	46	47	48	49	50	51	52	53	54	55	56	57	58	59	60	61	62	63	64	65	66	67	68	69	70	71	72	73	74	75	76	77	78	79	301	302	304	303	305	306	308	307	309	310	312	311	313	314	316	315	317	318	320	319	321	322	324	323	325	326	328	327	87	88	89	90	91	92	93	94	329	330	332	331	333	334	336	335	337	338	340	339	341	342	344	343	345	346	348	347	349	350	352	351	353	354	356	355	102	103	104	105	106	107	108	109	357	358	360	359	361	362	364	363	365	366	368	367	369	370	372	371	373	374	376	375	377	378	380	379	381	382	384	383	117	118	119	120	121	122	123	124	385	386	388	387	389	390	392	391	393	394	396	395	397	398	400	399	401	402	404	403	405	406	408	407	409	410	412	411	132	133	134	135	136	137	138	139	413	414	416	415	417	418	420	419	421	422	424	423	425	426	428	427	429	430	432	431	433	434	436	435	437	438	440	439	147	148	149	150	151	152	153	154	441	442	444	443	445	446	448	447	449	450	452	451	453	454	456	455	457	458	460	459	461	462	464	463	465	466	468	467	162	163	164	165	166	167	168	169	469	470	472	471	473	474	476	475	477	478	480	479	481	482	484	483	485	486	488	487	489	490	492	491	493	494	496	495	177	178	179	180	181	182	183	184	497	498	500	499	501	502	504	503	505	506	508	507	509	510	512	511	513	514	516	515	517	518	520	519	521	522	524	523	192	193	194	195	196	197	198	199	525	526	528	527	529	530	532	531	533	534	536	535	537	538	540	539	541	542	544	543	545	546	548	547	549	550	552	551	207	208	209	210	211	212	213	214	553	554	556	555	557	558	560	559	561	562	564	563	565	566	568	567	569	570	572	571	573	574	576	575	577	578	580	579	222	223	224	225	226	227	228	229	230	231	232	233	234	235	236	237	238	239	240	241	242	243	244	245	246	247	248	249	250	251	252	253	254	255	256	257	258	259	260	261	262	263	264	265	266	267	268	269	270	271	272	273	274	275	276	277	278	279	280	281	282	283	284	285	286	287	288	289	290	291	292	293	294	295	296	297	298	299	300	</DataArray>
<DataArray type="Int32" Name="nodenumber" format="ascii">1	2	3	4	5	6	7	8	9	10	11	12	13	14	15	16	17	18	19	20	21	22	23	24	25	26	27	28	29	30	31	32	33	34	35	36	37	38	39	40	41	42	43	44	45	46	47	48	49	50	51	52	53	54	55	56	57	58	59	60	61	62	63	64	65	66	67	68	69	70	71	72	73	74	75	76	77	78	79	80	81	83	82	84	85	87	86	88	89	91	90	92	93	95	94	96	97	99	98	100	101	103	102	104	105	107	106	108	109	110	111	112	113	114	115	116	117	119	118	120	121	123	122	124	125	127	126	128	129	131	130	132	133	135	134	136	137	139	138	140	141	143	142	144	145	146	147	148	149	150	151	152	153	155	154	156	157	159	158	160	161	163	162	164	165	167	166	168	169	171	170	172	173	175	174	176	177	179	178	180	181	182	183	184	185	186	187	188	189	191	190	192	193	195	194	196	197	199	198	200	201	203	202	204	205	207	206	208	209	211	210	212	213	215	214	216	217	218	219	220	221	222	223	224	225	227	226	228	229	231	230	232	233	235	234	236	237	239	238	240	241	243	242	244	245	247	246	248	249	251	250	252	253	254	255	256	257	258	259	260	261	263	262	264	265	267	266	268	269	271	270	272	273	275	274	276	277	279	278	280	281	283	282	284	285	287	286	288	289	290	291	292	293	294	295	296	297	299	298	300	301	303	302	304	305	307	306	308	309	311	310	312	313	315	314	316	317	319	318	320	321	323	322	324	325	326	327	328	329	330	331	332	333	335	334	336	337	339	338	340	341	343	342	344	345	347	346	348	349	351	350	352	353	355	354	356	357	359	358	360	361	362	363	364	365	366	367	368	369	371	370	372	373	375	374	376	377	379	378	380	381	383	382	384	385	387	386	388	389	391	390	392	393	395	394	396	397	398	399	400	401	402	403	404	405	407	406	408	409	411	410	412	413	415	414	416	417	419	418	420	421	423	422	424	425	427	426	428	429	431	430	432	433	434	435	436	437	438	439	440	441	442	443	444	445	446	447	448	449	450	451	452	453	454	455	456	457	458	459	460	461	462	463	464	465	466	467	468	469	470	471	472	473	474	475	476	477	478	479	480	481	482	483	484	485	486	487	488	489	490	491	492	493	494	495	496	497	498	499	500	501	502	503	504	505	506	507	508	509	510	</DataArray>
<DataArray type="Int32" Name="layer" format="ascii">1	1	1	1	1	1	1	1	1	1	1	1	1	1	1	1	1	1	1	1	1	1	1	1	1	1	1	1	1	1	1	1	1	1	1	1	1	1	1	1	1	1	1	1	1	1	1	1	1	1	1	1	1	1	1	1	1	1	1	1	1	1	1	1	1	1	1	1	1	1	1	1	1	1	1	1	1	1	1	1	1	1	1	1	1	1	1	1	1	1	1	1	1	1	1	1	1	1	1	1	1	1	1	1	1	1	1	1	1	1	1	1	1	1	1	1	1	1	1	1	1	1	1	1	1	1	1	1	1	1	1	1	1	1	1	1	1	1	1	1	1	1	1	1	1	1	1	1	1	1	1	1	1	1	1	1	1	1	1	1	1	1	1	1	1	1	1	1	1	1	1	1	1	1	1	1	1	1	1	1	1	1	1	1	1	1	1	1	1	1	1	1	1	1	1	1	1	1	1	1	1	1	1	1	1	1	1	1	1	1	1	1	1	1	1	1	1	1	1	1	1	1	1	1	1	1	1	1	1	1	1	1	1	1	1	1	1	1	1	1	1	1	1	1	1	1	1	1	1	1	1	1	1	1	1	1	1	1	1	1	1	1	1	1	1	1	1	1	1	1	1	1	1	1	1	1	1	1	1	1	1	1	1	1	1	1	1	1	1	1	1	1	1	1	1	1	1	1	1	1	1	1	1	1	1	1	1	1	1	1	1	1	1	1	1	1	1	1	1	1	1	1	1	1	1	1	1	1	1	1	1	1	1	1	1	1	1	1	1	1	1	1	1	1	1	1	1	1	1	1	1	1	1	1	1	1	1	1	1	1	1	1	1	1	1	1	1	1	1	1	1	1	1	1	1	1	1	1	1	1	1	1	1	1	1	1	1	1	1	1	1	1	1	1	1	1	1	1	1	1	1	1	1	1	1	1	1	1	1	1	1	1	1	1	1	1	1	1	1	1	1	1	1	1	1	1	1	1	1	1	1	1	1	1	1	1	1	1	1	1	1	1	1	1	1	1	1	1	1	1	1	1	1	1	1	1	1	1	1	1	1	1	1	1	1	1	1	1	1	1	1	1	1	1	1	1	1	1	1	1	1	1	1	1	1	1	1	1	1	1	1	1	1	1	1	1	1	1	1	1	1	1	1	1	1	1	1	1	1	1	</DataArray>
<DataArray type="Int32" Name="row" format="ascii">1	1	1	1	1	1	1	1	1	1	1	1	1	1	1	2	2	2	2	2	2	2	2	2	2	2	2	2	2	2	3	3	3	3	3	3	3	3	3	3	3	3	3	3	3	4	4	4	4	4	4	4	4	4	4	4	4	4	4	4	5	5	5	5	5	5	5	5	5	5	5	5	5	5	5	6	6	6	6	6	6	6	6	6	6	6	6	6	6	6	6	6	6	6	6	6	6	6	6	6	6	6	6	6	6	6	6	6	6	6	6	7	7	7	7	7	7	7	7	7	7	7	7	7	7	7	7	7	7	7	7	7	7	7	7	7	7	7	7	7	7	7	7	7	7	7	7	8	8	8	8	8	8	8	8	8	8	8	8	8	8	8	8	8	8	8	8	8	8	8	8	8	8	8	8	8	8	8	8	8	8	8	8	9	9	9	9	9	9	9	9	9	9	9	9	9	9	9	9	9	9	9	9	9	9	9	9	9	9	9	9	9	9	9	9	9	9	9	9	10	10	10	10	10	10	10	10	10	10	10	10	10	10	10	10	10	10	10	10	10	10	10	10	10	10	10	10	10	10	10	10	10	10	10	10	11	11	11	11	11	11	11	11	11	11	11	11	11	11	11	11	11	11	11	11	11	11	11	11	11	11	11	11	11	11	11	11	11	11	11	11	12	12	12	12	12	12	12	12	12	12	12	12	12	12	12	12	12	12	12	12	12	12	12	12	12	12	12	12	12	12	12	12	12	12	12	12	13	13	13	13	13	13	13	13	13	13	13	13	13	13	13	13	13	13	13	13	13	13	13	13	13	13	13	13	13	13	13	13	13	13	13	13	14	14	14	14	14	14	14	14	14	14	14	14	14	14	14	14	14	14	14	14	14	14	14	14	14	14	14	14	14	14	14	14	14	14	14	14	15	15	15	15	15	15	15	15	15	15	15	15	15	15	15	15	15	15	15	15	15	15	15	15	15	15	15	15	15	15	15	15	15	15	15	15	16	16	16	16	16	16	16	16	16	16	16	16	16	16	16	17	17	17	17	17	17	17	17	17	17	17	17	17	17	17	18	18	18	18	18	18	18	18	18	18	18	18	18	18	18	19	19	19	19	19	19	19	19	19	19	19	19	19	19	19	20	20	20	20	20	20	20	20	20	20	20	20	20	20	20	</DataArray>
<DataArray type="Int32" Name="col" format="ascii">1	2	3	4	5	6	7	8	9	10	11	12	13	14	15	1	2	3	4	5	6	7	8	9	10	11	12	13	14	15	1	2	3	4	5	6	7	8	9	10	11	12	13	14	15	1	2	3	4	5	6	7	8	9	10	11	12	13	14	15	1	2	3	4	5	6	7	8	9	10	11	12	13	14	15	1	2	3	4	5	5	5	5	6	6	6	6	7	7	7	7	8	8	8	8	9	9	9	9	10	10	10	10	11	11	11	11	12	13	14	15	1	2	3	4	5	5	5	5	6	6	6	6	7	7	7	7	8	8	8	8	9	9	9	9	10	10	10	10	11	11	11	11	12	13	14	15	1	2	3	4	5	5	5	5	6	6	6	6	7	7	7	7	8	8	8	8	9	9	9	9	10	10	10	10	11	11	11	11	12	13	14	15	1	2	3	4	5	5	5	5	6	6	6	6	7	7	7	7	8	8	8	8	9	9	9	9	10	10	10	10	11	11	11	11	12	13	14	15	1	2	3	4	5	5	5	5	6	6	6	6	7	7	7	7	8	8	8	8	9	9	9	9	10	10	10	10	11	11	11	11	12	13	14	15	1	2	3	4	5	5	5	5	6	6	6	6	7	7	7	7	8	8	8	8	9	9	9	9	10	10	10	10	11	11	11	11	12	13	14	15	1	2	3	4	5	5	5	5	6	6	6	6	7	7	7	7	8	8	8	8	9	9	9	9	10	10	10	10	11	11	11	11	12	13	14	15	1	2	3	4	5	5	5	5	6	6	6	6	7	7	7	7	8	8	8	8	9	9	9	9	10	10	10	10	11	11	11	11	12	13	14	15	1	2	3	4	5	5	5	5	6	6	6	6	7	7	7	7	8	8	8	8	9	9	9	9	10	10	10	10	11	11	11	11	12	13	14	15	1	2	3	4	5	5	5	5	6	6	6	6	7	7	7	7	8	8	8	8	9	9	9	9	10	10	10	10	11	11	11	11	12	13	14	15	1	2	3	4	5	6	7	8	9	10	11	12	13	14	15	1	2	3	4	5	6	7	8	9	10	11	12	13	14	15	1	2	3	4	5	6	7	8	9	10	11	12	13	14	15	1	2	3	4	5	6	7	8	9	10	11	12	13	14	15	1	2	3	4	5	6	7	8	9	10	11	12	13	14	15	</DataArray>
<DataArray type="Int32" Name="vtkid" format="ascii">8	16	24	32	40	48	56	64	72	80	88	96	104	112	120	128	136	144	152	160	168	176	184	192	200	208	216	224	232	240	248	256	264	272	280	288	296	304	312	320	328	336	344	352	360	368	376	384	392	400	408	416	424	432	440	448	456	464	472	480	488	496	504	512	520	528	536	544	552	560	568	576	584	592	600	608	616	624	632	640	648	656	664	672	680	688	696	704	712	720	728	736	744	752	760	768	776	784	792	800	808	816	824	832	840	848	856	864	872	880	888	896	904	912	920	928	936	944	952	960	968	976	984	992	1000	1008	1016	1024	1032	1040	1048	1056	1064	1072	1080	1088	1096	1104	1112	1120	1128	1136	1144	1152	1160	1168	1176	1184	1192	1200	1208	1216	1224	1232	1240	1248	1256	1264	1272	1280	1288	1296	1304	1312	1320	1328	1336	1344	1352	1360	1368	1376	1384	1392	1400	1408	1416	1424	1432	1440	1448	1456	1464	1472	1480	1488	1496	1504	1512	1520	1528	1536	1544	1552	1560	1568	1576	1584	1592	1600	1608	1616	1624	1632	1640	1648	1656	1664	1672	1680	1688	1696	1704	1712	1720	1728	1736	1744	1752	1760	1768	1776	1784	1792	1800	1808	1816	1824	1832	1840	1848	1856	1864	1872	1880	1888	1896	1904	1912	1920	1928	1936	1944	1952	1960	1968	1976	1984	1992	2000	2008	2016	2024	2032	2040	2048	2056	2064	2072	2080	2088	2096	2104	2112	2120	2128	2136	2144	2152	2160	2168	2176	2184	2192	2200	2208	2216	2224	2232	2240	2248	2256	2264	2272	2280	2288	2296	2304	2312	2320	2328	2336	2344	2352	2360	2368	2376	2384	2392	2400	2408	2416	2424	2432	2440	2448	2456	2464	2472	2480	2488	2496	2504	2512	2520	2528	2536	2544	2552	2560	2568	2576	2584	2592	2600	2608	2616	2624	2632	2640	2648	2656	2664	2672	2680	2688	2696	2704	2712	2720	2728	2736	2744	2752	2760	2768	2776	2784	2792	2800	2808	2816	2824	2832	2840	2848	2856	2864	2872	2880	2888	2896	2904	2912	2920	2928	2936	2944	2952	2960	2968	2976	2984	2992	3000	3008	3016	3024	3032	3040	3048	3056	3064	3072	3080	3088	3096	3104	3112	3120	3128	3136	3144	3152	3160	3168	3176	3184	3192	3200	3208	3216	3224	3232	3240	3248	3256	3264	3272	3280	3288	3296	3304	3312	3320	3328	3336	3344	3352	3360	3368	3376	3384	3392	3400	3408	3416	3424	3432	3440	3448	3456	3464	3472	3480	3488	3496	3504	3512	3520	3528	3536	3544	3552	3560	3568	3576	3584	3592	3600	3608	3616	3624	3632	3640	3648	3656	3664	3672	3680	3688	3696	3704	3712	3720	3728	3736	3744	3752	3760	3768	3776	3784	3792	3800	3808	3816	3824	3832	3840	3848	3856	3864	3872	3880	3888	3896	3904	3912	3920	3928	3936	3944	3952	3960	3968	3976	3984	3992	4000	4008	4016	4024	4032	4040	4048	4056	4064	4072	4080	</DataArray>
<DataArray type="Float64" Name="top" format="ascii">100	100	100	100	100	100	100	100	100	100	100	100	100	100	100	97.3684	97.3684	97.3684	97.3684	97.3684	97.3684	97.3684	97.3684	97.3684	97.3684	97.3684	97.3684	97.3684	97.3684	97.3684	94.7368	94.7368	94.7368	94.7368	94.7368	94.7368	94.7368	94.7368	94.7368	94.7368	94.7368	94.7368	94.7368	94.7368	94.7368	92.1053	92.1053	92.1053	92.1053	92.1053	92.1053	92.1053	92.1053	92.1053	92.1053	92.1053	92.1053	92.1053	92.1053	92.1053	89.4737	89.4737	89.4737	89.4737	89.4737	89.4737	89.4737	89.4737	89.4737	89.4737	89.4737	89.4737	89.4737	89.4737	89.4737	86.8421	86.8421	86.8421	86.8421	86.8421	86.8421	86.8421	86.8421	86.8421	86.8421	86.8421	86.8421	86.8421	86.8421	86.8421	86.8421	86.8421	86.8421	86.8421	86.8421	86.8421	86.8421	86.8421	86.8421	86.8421	86.8421	86.8421	86.8421	86.8421	86.8421	86.8421	86.8421	86.8421	86.8421	86.8421	86.8421	84.2105	84.2105	84.2105	84.2105	84.2105	84.2105	84.2105	84.2105	84.2105	84.2105	84.2105	84.2105	84.2105	84.2105	84.2105	84.2105	84.2105	84.2105	84.2105	84.2105	84.2105	84.2105	84.2105	84.2105	84.2105	84.2105	84.2105	84.2105	84.2105	84.2105	84.2105	84.2105	84.2105	84.2105	84.2105	84.2105	81.5789	81.5789	81.5789	81.5789	81.5789	81.5789	81.5789	81.5789	81.5789	81.5789	81.5789	81.5789	81.5789	81.5789	81.5789	81.5789	81.5789	81.5789	81.5789	81.5789	81.5789	81.5789	81.5789	81.5789	81.5789	81.5789	81.5789	81.5789	81.5789	81.5789	81.5789	81.5789	81.5789	81.5789	81.5789	81.5789	78.9474	78.9474	78.9474	78.9474	78.9474	78.9474	78.9474	78.9474	78.9474	78.9474	78.9474	78.9474	78.9474	78.9474	78.9474	78.9474	78.9474	78.9474	78.9474	78.9474	78.9474	78.9474	78.9474	78.9474	78.9474	78.9474	78.9474	78.9474	78.9474	78.9474	78.9474	78.9474	78.9474	78.9474	78.9474	78.9474	76.3158	76.3158	76.3158	76.3158	76.3158	76.3158	76.3158	76.3158	76.3158	76.3158	76.3158	76.3158	76.3158	76.3158	76.3158	76.3158	76.3158	76.3158	76.3158	76.3158	76.3158	76.3158	76.3158	76.3158	76.3158	76.3158	76.3158	76.3158	76.3158	76.3158	76.3158	76.3158	76.3158	76.3158	76.3158	76.3158	73.6842	73.6842	73.6842	73.6842	73.6842	73.6842	73.6842	73.6842	73.6842	73.6842	73.6842	73.6842	73.6842	73.6842	73.6842	73.6842	73.6842	73.6842	73.6842	73.6842	73.6842	73.6842	73.6842	73.6842	73.6842	73.6842	73.6842	73.6842	73.6842	73.6842	73.6842	73.6842	73.6842	73.6842	73.6842	73.6842	71.0526	71.0526	71.0526	71.0526	71.0526	71.0526	71.0526	71.0526	71.0526	71.0526	71.0526	71.0526	71.0526	71.0526	71.0526	71.0526	71.0526	71.0526	71.0526	71.0526	71.0526	71.0526	71.0526	71.0526	71.0526	71.0526	71.0526	71.0526	71.0526	71.0526	71.0526	71.0526	71.0526	71.0526	71.0526	71.0526	68.4211	68.4211	68.4211	68.4211	68.4211	68.4211	68.4211	68.4211	68.4211	68.4211	68.4211	68.4211	68.4211	68.4211	68.4211	68.4211	68.4211	68.4211	68.4211	68.4211	68.4211	68.4211	68.4211	68.4211	68.4211	68.4211	68.4211	68.4211	68.4211	68.4211	68.4211	68.4211	68.4211	68.4211	68.4211	68.4211	65.7895	65.7895	65.7895	65.7895	65.7895	65.7895	65.7895	65.7895	65.7895	65.7895	65.7895	65.7895	65.7895	65.7895	65.7895	65.7895	65.7895	65.7895	65.7895	65.7895	65.7895	65.7895	65.7895	65.7895	65.7895	65.7895	65.7895	65.7895	65.7895	65.7895	65.7895	65.7895	65.7895	65.7895	65.7895	65.7895	63.1579	63.1579	63.1579	63.1579	63.1579	63.1579	63.1579	63.1579	63.1579	63.1579	63.1579	63.1579	63.1579	63.1579	63.1579	63.1579	63.1579	63.1579	63.1579	63.1579	63.1579	63.1579	63.1579	63.1579	63.1579	63.1579	63.1579	63.1579	63.1579	63.1579	63.1579	63.1579	63.1579	63.1579	63.1579	63.1579	60.5263	60.5263	60.5263	60.5263	60.5263	60.5263	60.5263	60.5263	60.5263	60.5263	60.5263	60.5263	60.5263	60.5263	60.5263	57.8947	57.8947	57.8947	57.8947	57.8947	57.8947	57.8947	57.8947	57.8947	57.8947	57.8947	57.8947	57.8947	57.8947	57.8947	55.2632	55.2632	55.2632	55.2632	55.2632	55.2632	55.2632	55.2632	55.2632	55.2632	55.2632	55.2632	55.2632	55.2632	55.2632	52.6316	52.6316	52.6316	52.6316	52.6316	52.6316	52.6316	52.6316	52.6316	52.6316	52.6316	52.6316	52.6316	52.6316	52.6316	50	50	50	50	50	50	50	50	50	50	50	50	50	50	50	</DataArray>
<DataArray type="Float64" Name="bottom" format="ascii">50	50	50	50	50	50	50	50	50	50	50	50	50	50	50	47.3684	47.3684	47.3684	47.3684	47.3684	47.3684	47.3684	47.3684	47.3684	47.3684	47.3684	47.3684	47.3684	47.3684	47.3684	44.7368	44.7368	44.7368	44.7368	44.7368	44.7368	44.7368	44.7368	44.7368	44.7368	44.7368	44.7368	44.7368	44.7368	44.7368	42.1053	42.1053	42.1053	42.1053	42.1053	42.1053	42.1053	42.1053	42.1053	42.1053	42.1053	42.1053	42.1053	42.1053	42.1053	39.4737	39.4737	39.4737	39.4737	39.4737	39.4737	39.4737	39.4737	39.4737	39.4737	39.4737	39.4737	39.4737	39.4737	39.4737	36.8421	36.8421	36.8421	36.8421	36.8421	36.8421	36.8421	36.8421	36.8421	36.8421	36.8421	36.8421	36.8421	36.8421	36.8421	36.8421	36.8421	36.8421	36.8421	36.8421	36.8421	36.8421	36.8421	36.8421	36.8421	36.8421	36.8421	36.8421	36.8421	36.8421	36.8421	36.8421	36.8421	36.8421	36.8421	36.8421	34.2105	34.2105	34.2105	34.2105	34.2105	34.2105	34.2105	34.2105	34.2105	34.2105	34.2105	34.2105	34.2105	34.2105	34.2105	34.2105	34.2105	34.2105	34.2105	34.2105	34.2105	34.2105	34.2105	34.2105	34.2105	34.2105	34.2105	34.2105	34.2105	34.2105	34.2105	34.2105	34.2105	34.2105	34.2105	34.2105	31.5789	31.5789	31.5789	31.5789	31.5789	31.5789	31.5789	31.5789	31.5789	31.5789	31.5789	31.5789	31.5789	31.5789	31.5789	31.5789	31.5789	31.5789	31.5789	31.5789	31.5789	31.5789	31.5789	31.5789	31.5789	31.5789	31.5789	31.5789	31.5789	31.5789	31.5789	31.5789	31.5789	31.5789	31.5789	31.5789	28.9474	28.9474	28.9474	28.9474	28.9474	28.9474	28.9474	28.9474	28.9474	28.9474	28.9474	28.9474	28.9474	28.9474	28.9474	28.9474	28.9474	28.9474	28.9474	28.9474	28.9474	28.9474	28.9474	28.9474	28.9474	28.9474	28.9474	28.9474	28.9474	28.9474	28.9474	28.9474	28.9474	28.9474	28.9474	28.9474	26.3158	26.3158	26.3158	26.3158	26.3158	26.3158	26.3158	26.3158	26.3158	26.3158	26.3158	26.3158	26.3158	26.3158	26.3158	26.3158	26.3158	26.3158	26.3158	26.3158	26.3158	26.3158	26.3158	26.3158	26.3158	26.3158	26.3158	26.3158	26.3158	26.3158	26.3158	26.3158	26.3158	26.3158	26.3158	26.3158	23.6842	23.6842	23.6842	23.6842	23.6842	23.6842	23.6842	23.6842	23.6842	23.6842	23.6842	23.6842	23.6842	23.6842	23.6842	23.6842	23.6842	23.6842	23.6842	23.6842	23.6842	23.6842	23.6842	23.6842	23.6842	23.6842	23.6842	23.6842	23.6842	23.6842	23.6842	23.6842	23.6842	23.6842	23.6842	23.6842	21.0526	21.0526	21.0526	21.0526	21.0526	21.0526	21.0526	21.0526	21.0526	21.0526	21.0526	21.0526	21.0526	21.0526	21.0526	21.0526	21.0526	21.0526	21.0526	21.0526	21.0526	21.0526	21.0526	21.0526	21.0526	21.0526	21.0526	21.0526	21.0526	21.0526	21.0526	21.0526	21.0526	21.0526	21.0526	21.0526	18.4211	18.4211	18.4211	18.4211	18.4211	18.4211	18.4211	18.4211	18.4211	18.4211	18.4211	18.4211	18.4211	18.4211	18.4211	18.4211	18.4211	18.4211	18.4211	18.4211	18.4211	18.4211	18.4211	18.4211	18.4211	18.4211	18.4211	18.4211	18.4211	18.4211	18.4211	18.4211	18.4211	18.4211	18.4211	18.4211	15.7895	15.7895	15.7895	15.7895	15.7895	15.7895	15.7895	15.7895	15.7895	15.7895	15.7895	15.7895	15.7895	15.7895	15.7895	15.7895	15.7895	15.7895	15.7895	15.7895	15.7895	15.7895	15.7895	15.7895	15.7895	15.7895	15.7895	15.7895	15.7895	15.7895	15.7895	15.7895	15.7895	15.7895	15.7895	15.7895	13.1579	13.1579	13.1579	13.1579	13.1579	13.1579	13.1579	13.1579	13.1579	13.1579	13.1579	13.1579	13.1579	13.1579	13.1579	13.1579	13.1579	13.1579	13.1579	13.1579	13.1579	13.1579	13.1579	13.1579	13.1579	13.1579	13.1579	13.1579	13.1579	13.1579	13.1579	13.1579	13.1579	13.1579	13.1579	13.1579	10.5263	10.5263	10.5263	10.5263	10.5263	10.5263	10.5263	10.5263	10.5263	10.5263	10.5263	10.5263	10.5263	10.5263	10.5263	7.89474	7.89474	7.89474	7.89474	7.89474	7.89474	7.89474	7.89474	7.89474	7.89474	7.89474	7.89474	7.89474	7.89474	7.89474	5.26316	5.26316	5.26316	5.26316	5.26316	5.26316	5.26316	5.26316	5.26316	5.26316	5.26316	5.26316	5.26316	5.26316	5.26316	2.63158	2.63158	2.63158	2.63158	2.63158	2.63158	2.63158	2.63158	2.63158	2.63158	2.63158	2.63158	2.63158	2.63158	2.63158	0	0	0	0	0	0	0	0	0	0	0	0	0	0	0	</DataArray>