<?xml version="1.0"?>
<VTKFile type="UnstructuredGrid" version="0.1" byte_order="BigEndian">
<UnstructuredGrid GhostLevel="0">
<Piece NumberOfPoints="1126" NumberOfCells="510" ><Points>
<DataArray type="Float32" NumberOfComponents="3" format="ascii">
2.34568e+06	1.23757e+06	100	2.34568e+06	1.23742e+06	98.6842	2.34593e+06	1.23757e+06	100	2.34593e+06	1.23742e+06	98.6842	2.34568e+06	1.23757e+06	50	2.34568e+06	1.23742e+06	48.6842	2.34593e+06	1.23757e+06	50	2.34593e+06	1.23742e+06	48.6842	2.34618e+06	1.23757e+06	100	2.34618e+06	1.23742e+06	98.6842	2.34618e+06	1.23757e+06	50	2.34618e+06	1.23742e+06	48.6842	2.34643e+06	1.23757e+06	100	2.34643e+06	1.23742e+06	98.6842	2.34643e+06	1.23757e+06	50	2.34643e+06	1.23742e+06	48.6842	2.34668e+06	1.23757e+06	100	2.34668e+06	1.23742e+06	98.6842	2.34668e+06	1.23757e+06	50	2.34668e+06	1.23742e+06	48.6842	2.34693e+06	1.23757e+06	100	2.34693e+06	1.23742e+06	98.6842	2.34693e+06	1.23757e+06	50	2.34693e+06	1.23742e+06	48.6842	2.34718e+06	1.23757e+06	100	2.34718e+06	1.23742e+06	98.6842	2.34718e+06	1.23757e+06	50	2.34718e+06	1.23742e+06	48.6842	2.34743e+06	1.23757e+06	100	2.34743e+06	1.23742e+06	98.6842	2.34743e+06	1.23757e+06	50	2.34743e+06	1.23742e+06	48.6842	2.34768e+06	1.23757e+06	100	2.34768e+06	1.23742e+06	98.6842	2.34768e+06	1.23757e+06	50	2.34768e+06	1.23742e+06	48.6842	2.34793e+06	1.23757e+06	100	2.34793e+06	1.23742e+06	98.6842	2.34793e+06	1.23757e+06	50	2.34793e+06	1.23742e+06	48.6842	2.34818e+06	1.23757e+06	100	2.34818e+06	1.23742e+06	98.6842	2.34818e+06	1.23757e+06	50	2.34818e+06	1.23742e+06	48.6842	2.34843e+06	1.23757e+06	100	2.34843e+06	1.23742e+06	98.6842	2.34843e+06	1.23757e+06	50	2.34843e+06	1.23742e+06	48.6842	2.34868e+06	1.23757e+06	100	2.34868e+06	1.23742e+06	98.6842	2.34868e+06	1.23757e+06	50	2.34868e+06	1.23742e+06	48.6842	2.34893e+06	1.23757e+06	100	2.34893e+06	1.23742e+06	98.6842	2.34893e+06	1.23757e+06	50	2.34893e+06	1.23742e+06	48.6842	2.34918e+06	1.23757e+06	100	2.34918e+06	1.23742e+06	98.6842	2.34918e+06	1.23757e+06	50	2.34918e+06	1.23742e+06	48.6842	2.34943e+06	1.23757e+06	100	2.34943e+06	1.23742e+06	98.6842	2.34943e+06	1.23757e+06	50	2.34943e+06	1.23742e+06	48.6842	2.34568e+06	1.23727e+06	96.0526	2.34593e+06	1.23727e+06	96.0526	2.34568e+06	1.23727e+06	46.0526	2.34593e+06	1.23727e+06	46.0526	2.34618e+06	1.23727e+06	96.0526	2.34618e+06	1.23727e+06	46.0526	2.34643e+06	1.23727e+06	96.0526	2.34643e+06	1.23727e+06	46.0526	2.34668e+06	1.23727e+06	96.0526	2.34668e+06	1.23727e+06	46.0526	2.34693e+06	1.23727e+06	96.0526	2.34693e+06	1.23727e+06	46.0526	2.34718e+06	1.23727e+06	96.0526	2.34718e+06	1.23727e+06	46.0526	2.34743e+06	1.23727e+06	96.0526	2.34743e+06	1.23727e+06	46.0526	2.34768e+06	1.23727e+06	96.0526	2.34768e+06	1.23727e+06	46.0526	2.34793e+06	1.23727e+06	96.0526	2.34793e+06	1.23727e+06	46.0526	2.34818e+06	1.23727e+06	96.0526	2.34818e+06	1.23727e+06	46.0526	2.34843e+06	1.23727e+06	96.0526	2.34843e+06	1.23727e+06	46.0526	2.34868e+06	1.23727e+06	96.0526	2.34868e+06	1.23727e+06	46.0526	2.34893e+06	1.23727e+06	96.0526	2.34893e+06	1.23727e+06	46.0526	2.34918e+06	1.23727e+06	96.0526	2.34918e+06	1.23727e+06	46.0526	2.34943e+06	1.23727e+06	96.0526	2.34943e+06	1.23727e+06	46.0526	2.34568e+06	1.23712e+06	93.4211	2.34593e+06	1.23712e+06	93.4211	2.34568e+06	1.23712e+06	43.4211	2.34593e+06	1.23712e+06	43.4211	2.34618e+06	1.23712e+06	93.4211	2.34618e+06	1.23712e+06	43.4211	2.34643e+06	1.23712e+06	93.4211	2.34643e+06	1.23712e+06	43.4211	2.34668e+06	1.23712e+06	93.4211	2.34668e+06	1.23712e+06	43.4211	2.34693e+06	1.23712e+06	93.4211	2.34693e+06	1.23712e+06	43.4211	2.34718e+06	1.23712e+06	93.4211	2.34718e+06	1.23712e+06	43.4211	2.34743e+06	1.23712e+06	93.4211	2.34743e+06	1.23712e+06	43.4211	2.34768e+06	1.23712e+06	93.4211	2.34768e+06	1.23712e+06	43.4211	2.34793e+06	1.23712e+06	93.4211	2.34793e+06	1.23712e+06	43.4211	2.34818e+06	1.23712e+06	93.4211	2.34818e+06	1.23712e+06	43.4211	2.34843e+06	1.23712e+06	93.4211	2.34843e+06	1.23712e+06	43.4211	2.34868e+06	1.23712e+06	93.4211	2.34868e+06	1.23712e+06	43.4211	2.34893e+06	1.23712e+06	93.4211	2.34893e+06	1.23712e+06	43.4211	2.34918e+06	1.23712e+06	93.4211	2.34918e+06	1.23712e+06	43.4211	2.34943e+06	1.23712e+06	93.4211	2.34943e+06	1.23712e+06	43.4211	2.34568e+06	1.23697e+06	90.7895	2.34593e+06	1.23697e+06	90.7895	2.34568e+06	1.23697e+06	40.7895	2.34593e+06	1.23697e+06	40.7895	2.34618e+06	1.23697e+06	90.7895	2.34618e+06	1.23697e+06	40.7895	2.34643e+06	1.23697e+06	90.7895	2.34643e+06	1.23697e+06	40.7895	2.34668e+06	1.23697e+06	90.7895	2.34668e+06	1.23697e+06	40.7895	2.34693e+06	1.23697e+06	90.7895	2.34693e+06	1.23697e+06	40.7895	2.34718e+06	1.23697e+06	90.7895	2.34718e+06	1.23697e+06	40.7895	2.34743e+06	1.23697e+06	90.7895	2.34743e+06	1.23697e+06	40.7895	2.34768e+06	1.23697e+06	90.7895	2.34768e+06	1.23697e+06	40.7895	2.34793e+06	1.23697e+06	90.7895	2.34793e+06	1.23697e+06	40.7895	2.34818e+06	1.23697e+06	90.7895	2.34818e+06	1.23697e+06	40.7895	2.34843e+06	1.23697e+06	90.7895	2.34843e+06	1.23697e+06	40.7895	2.34868e+06	1.23697e+06	90.7895	2.34868e+06	1.23697e+06	40.7895	2.34893e+06	1.23697e+06	90.7895	2.34893e+06	1.23697e+06	40.7895	2.34918e+06	1.23697e+06	90.7895	2.34918e+06	1.23697e+06	40.7895	2.34943e+06	1.23697e+06	90.7895	2.34943e+06	1.23697e+06	40.7895	2.34568e+06	1.23682e+06	88.1579	2.34593e+06	1.23682e+06	88.1579	2.34568e+06	1.23682e+06	38.1579	2.34593e+06	1.23682e+06	38.1579	2.34618e+06	1.23682e+06	88.1579	2.34618e+06	1.23682e+06	38.1579	2.34643e+06	1.23682e+06	88.1579	2.34643e+06	1.23682e+06	38.1579	2.34668e+06	1.23682e+06	87.9386	2.34668e+06	1.23682e+06	37.9386	2.34693e+06	1.23682e+06	87.7193	2.34693e+06	1.23682e+06	37.7193	2.34718e+06	1.23682e+06	87.7193	2.34718e+06	1.23682e+06	37.7193	2.34743e+06	1.23682e+06	87.7193	2.34743e+06	1.23682e+06	37.7193	2.34768e+06	1.23682e+06	87.7193	2.34768e+06	1.23682e+06	37.7193	2.34793e+06	1.23682e+06	87.7193	2.34793e+06	1.23682e+06	37.7193	2.34818e+06	1.23682e+06	87.7193	2.34818e+06	1.23682e+06	37.7193	2.34843e+06	1.23682e+06	87.9386	2.34843e+06	1.23682e+06	37.9386	2.34868e+06	1.23682e+06	88.1579	2.34868e+06	1.23682e+06	38.1579	2.34893e+06	1.23682e+06	88.1579	2.34893e+06	1.23682e+06	38.1579	2.34918e+06	1.23682e+06	88.1579	2.34918e+06	1.23682e+06	38.1579	2.34943e+06	1.23682e+06	88.1579	2.34943e+06	1.23682e+06	38.1579	2.34568e+06	1.23667e+06	85.5263	2.34593e+06	1.23667e+06	85.5263	2.34568e+06	1.23667e+06	35.5263	2.34593e+06	1.23667e+06	35.5263	2.34618e+06	1.23667e+06	85.5263	2.34618e+06	1.23667e+06	35.5263	2.34643e+06	1.23667e+06	85.5263	2.34643e+06	1.23667e+06	35.5263	2.34668e+06	1.23667e+06	85.5263	2.34668e+06	1.23667e+06	35.5263	2.34843e+06	1.23667e+06	85.5263	2.34868e+06	1.23667e+06	85.5263	2.34843e+06	1.23667e+06	35.5263	2.34868e+06	1.23667e+06	35.5263	2.34893e+06	1.23667e+06	85.5263	2.34893e+06	1.23667e+06	35.5263	2.34918e+06	1.23667e+06	85.5263	2.34918e+06	1.23667e+06	35.5263	2.34943e+06	1.23667e+06	85.5263	2.34943e+06	1.23667e+06	35.5263	2.34568e+06	1.23652e+06	82.8947	2.34593e+06	1.23652e+06	82.8947	2.34568e+06	1.23652e+06	32.8947	2.34593e+06	1.23652e+06	32.8947	2.34618e+06	1.23652e+06	82.8947	2.34618e+06	1.23652e+06	32.8947	2.34643e+06	1.23652e+06	82.8947	2.34643e+06	1.23652e+06	32.8947	2.34668e+06	1.23652e+06	82.8947	2.34668e+06	1.23652e+06	32.8947	2.34843e+06	1.23652e+06	82.8947	2.34868e+06	1.23652e+06	82.8947	2.34843e+06	1.23652e+06	32.8947	2.34868e+06	1.23652e+06	32.8947	2.34893e+06	1.23652e+06	82.8947	2.34893e+06	1.23652e+06	32.8947	2.34918e+06	1.23652e+06	82.8947	2.34918e+06	1.23652e+06	32.8947	2.34943e+06	1.23652e+06	82.8947	2.34943e+06	1.23652e+06	32.8947	2.34568e+06	1.23637e+06	80.2632	2.34593e+06	1.23637e+06	80.2632	2.34568e+06	1.23637e+06	30.2632	2.34593e+06	1.23637e+06	30.2632	2.34618e+06	1.23637e+06	80.2632	2.34618e+06	1.23637e+06	30.2632	2.34643e+06	1.23637e+06	80.2632	2.34643e+06	1.23637e+06	30.2632	2.34668e+06	1.23637e+06	80.2632	2.34668e+06	1.23637e+06	30.2632	2.34843e+06	1.23637e+06	80.2632	2.34868e+06	1.23637e+06	80.2632	2.34843e+06	1.23637e+06	30.2632	2.34868e+06	1.23637e+06	30.2632	2.34893e+06	1.23637e+06	80.2632	2.34893e+06	1.23637e+06	30.2632	2.34918e+06	1.23637e+06	80.2632	2.34918e+06	1.23637e+06	30.2632	2.34943e+06	1.23637e+06	80.2632	2.34943e+06	1.23637e+06	30.2632	2.34568e+06	1.23622e+06	77.6316	2.34593e+06	1.23622e+06	77.6316	2.34568e+06	1.23622e+06	27.6316	2.34593e+06	1.23622e+06	27.6316	2.34618e+06	1.23622e+06	77.6316	2.34618e+06	1.23622e+06	27.6316	2.34643e+06	1.23622e+06	77.6316	2.34643e+06	1.23622e+06	27.6316	2.34668e+06	1.23622e+06	77.6316	2.34668e+06	1.23622e+06	27.6316	2.34843e+06	1.23622e+06	77.6316	2.34868e+06	1.23622e+06	77.6316	2.34843e+06	1.23622e+06	27.6316	2.34868e+06	1.23622e+06	27.6316	2.34893e+06	1.23622e+06	77.6316	2.34893e+06	1.23622e+06	27.6316	2.34918e+06	1.23622e+06	77.6316	2.34918e+06	1.23622e+06	27.6316	2.34943e+06	1.23622e+06	77.6316	2.34943e+06	1.23622e+06	27.6316	2.34568e+06	1.23607e+06	75	2.34593e+06	1.23607e+06	75	2.34568e+06	1.23607e+06	25	2.34593e+06	1.23607e+06	25	2.34618e+06	1.23607e+06	75	2.34618e+06	1.23607e+06	25	2.34643e+06	1.23607e+06	75	2.34643e+06	1.23607e+06	25	2.34668e+06	1.23607e+06	75	2.34668e+06	1.23607e+06	25	2.34843e+06	1.23607e+06	75	2.34868e+06	1.23607e+06	75	2.34843e+06	1.23607e+06	25	2.34868e+06	1.23607e+06	25	2.34893e+06	1.23607e+06	75	2.34893e+06	1.23607e+06	25	2.34918e+06	1.23607e+06	75	2.34918e+06	1.23607e+06	25	2.34943e+06	1.23607e+06	75	2.34943e+06	1.23607e+06	25	2.34568e+06	1.23592e+06	72.3684	2.34593e+06	1.23592e+06	72.3684	2.34568e+06	1.23592e+06	22.3684	2.34593e+06	1.23592e+06	22.3684	2.34618e+06	1.23592e+06	72.3684	2.34618e+06	1.23592e+06	22.3684	2.34643e+06	1.23592e+06	72.3684	2.34643e+06	1.23592e+06	22.3684	2.34668e+06	1.23592e+06	72.3684	2.34668e+06	1.23592e+06	22.3684	2.34843e+06	1.23592e+06	72.3684	2.34868e+06	1.23592e+06	72.3684	2.34843e+06	1.23592e+06	22.3684	2.34868e+06	1.23592e+06	22.3684	2.34893e+06	1.23592e+06	72.3684	2.34893e+06	1.23592e+06	22.3684	2.34918e+06	1.23592e+06	72.3684	2.34918e+06	1.23592e+06	22.3684	2.34943e+06	1.23592e+06	72.3684	2.34943e+06	1.23592e+06	22.3684	2.34568e+
[...]
<CellData Scalars="scalars">
<DataArray type="Int32" Name="nodeid" format="ascii">1	2	3	4	5	6	7	8	9	10	11	12	13	14	15	16	17	18	19	20	21	22	23	24	25	26	27	28	29	30	31	32	33	34	35	36	37	38	39	40	41	42	43	44	45	46	47	48	49	50	51	52	53	54	55	56	57	58	59	60	61	62	63	64	65	66	67	68	69	70	71	72	73	74	75	76	77	78	79	301	302	304	303	305	306	308	307	309	310	312	311	313	314	316	315	317	318	320	319	321	322	324	323	325	326	328	327	87	88	89	90	91	92	93	94	329	330	332	331	333	334	336	335	337	338	340	339	341	342	344	343	345	346	348	347	349	350	352	351	353	354	356	355	102	103	104	105	106	107	108	109	357	358	360	359	361	362	364	363	365	366	368	367	369	370	372	371	373	374	376	375	377	378	380	379	381	382	384	383	117	118	119	120	121	122	123	124	385	386	388	387	389	390	392	391	393	394	396	395	397	398	400	399	401	402	404	403	405	406	408	407	409	410	412	411	132	133	134	135	136	137	138	139	413	414	416	415	417	418	420	419	421	422	424	423	425	426	428	427	429	430	432	431	433	434	436	435	437	438	440	439	147	148	149	150	151	152	153	154	441	442	444	443	445	446	448	447	449	450	452	451	453	454	456	455	457	458	460	459	461	462	464	463	465	466	468	467	162	163	164	165	166	167	168	169	469	470	472	471	473	474	476	475	477	478	480	479	481	482	484	483	485	486	488	487	489	490	492	491	493	494	496	495	177	178	179	180	181	182	183	184	497	498	500	499	501	502	504	503	505	506	508	507	509	510	512	511	513	514	516	515	517	518	520	519	521	522	524	523	192	193	194	195	196	197	198	199	525	526	528	527	529	530	532	531	533	534	536	535	537	538	540	539	541	542	544	543	545	546	548	547	549	550	552	551	207	208	209	210	211	212	213	214	553	554	556	555	557	558	560	559	561	562	564	563	565	566	568	567	569	570	572	571	573	574	576	575	577	578	580	579	222	223	224	225	226	227	228	229	230	231	232	233	234	235	236	237	238	239	240	241	242	243	244	245	246	247	248	249	250	251	252	253	254	255	256	257	258	259	260	261	262	263	264	265	266	267	268	269	270	271	272	273	274	275	276	277	278	279	280	281	282	283	284	285	286	287	288	289	290	291	292	293	294	295	296	297	298	299	300	</DataArray>
<DataArray type="Int32" Name="nodenumber" format="ascii">1	2	3	4	5	6	7	8	9	10	11	12	13	14	15	16	17	18	19	20	21	22	23	24	25	26	27	28	29	30	31	32	33	34	35	36	37	38	39	40	41	42	43	44	45	46	47	48	49	50	51	52	53	54	55	56	57	58	59	60	61	62	63	64	65	66	67	68	69	70	71	72	73	74	75	76	77	78	79	80	81	83	82	84	85	87	86	88	89	91	90	92	93	95	94	96	97	99	98	100	101	103	102	104	105	107	106	108	109	110	111	112	113	114	115	116	117	119	118	120	121	123	122	124	125	127	126	128	129	131	130	132	133	135	134	136	137	139	138	140	141	143	142	144	145	146	147	148	149	150	151	152	153	155	154	156	157	159	158	160	161	163	162	164	165	167	166	168	169	171	170	172	173	175	174	176	177	179	178	180	181	182	183	184	185	186	187	188	189	191	190	192	193	195	194	196	197	199	198	200	201	203	202	204	205	207	206	208	209	211	210	212	213	215	214	216	217	218	219	220	221	222	223	224	225	227	226	228	229	231	230	232	233	235	234	236	237	239	238	240	241	243	242	244	245	247	246	248	249	251	250	252	253	254	255	256	257	258	259	260	261	263	262	264	265	267	266	268	269	271	270	272	273	275	274	276	277	279	278	280	281	283	282	284	285	287	286	288	289	290	291	292	293	294	295	296	297	299	298	300	301	303	302	304	305	307	306	308	309	311	310	312	313	315	314	316	317	319	318	320	321	323	322	324	325	326	327	328	329	330	331	332	333	335	334	336	337	339	338	340	341	343	342	344	345	347	346	348	349	351	350	352	353	355	354	356	357	359	358	360	361	362	363	364	365	366	367	368	369	371	370	372	373	375	374	376	377	379	378	380	381	383	382	384	385	387	386	388	389	391	390	392	393	395	394	396	397	398	399	400	401	402	403	404	405	407	406	408	409	411	410	412	413	415	414	416	417	419	418	420	421	423	422	424	425	427	426	428	429	431	430	432	433	434	435	436	437	438	439	440	441	442	443	444	445	446	447	448	449	450	451	452	453	454	455	456	457	458	459	460	461	462	463	464	465	466	467	468	469	470	471	472	473	474	475	476	477	478	479	480	481	482	483	484	485	486	487	488	489	490	491	492	493	494	495	496	497	498	499	500	501	502	503	504	505	506	507	508	509	510	</DataArray>
<DataArray type="Int32" Name="layer" format="ascii">1	1	1	1	1	1	1	1	1	1	1	1	1	1	1	1	1	1	1	1	1	1	1	1	1	1	1	1	1	1	1	1	1	1	1	1	1	1	1	1	1	1	1	1	1	1	1	1	1	1	1	1	1	1	1	1	1	1	1	1	1	1	1	1	1	1	1	1	1	1	1	1	1	1	1	1	1	1	1	1	1	1	1	1	1	1	1	1	1	1	1	1	1	1	1	1	1	1	1	1	1	1	1	1	1	1	1	1	1	1	1	1	1	1	1	1	1	1	1	1	1	1	1	1	1	1	1	1	1	1	1	1	1	1	1	1	1	1	1	1	1	1	1	1	1	1	1	1	1	1	1	1	1	1	1	1	1	1	1	1	1	1	1	1	1	1	1	1	1	1	1	1	1	1	1	1	1	1	1	1	1	1	1	1	1	1	1	1	1	1	1	1	1	1	1	1	1	1	1	1	1	1	1	1	1	1	1	1	1	1	1	1	1	1	1	1	1	1	1	1	1	1	1	1	1	1	1	1	1	1	1	1	1	1	1	1	1	1	1	1	1	1	1	1	1	1	1	1	1	1	1	1	1	1	1	1	1	1	1	1	1	1	1	1	1	1	1	1	1	1	1	1	1	1	1	1	1	1	1	1	1	1	1	1	1	1	1	1	1	1	1	1	1	1	1	1	1	1	1	1	1	1	1	1	1	1	1	1	1	1	1	1	1	1	1	1	1	1	1	1	1	1	1	1	1	1	1	1	1	1	1	1	1	1	1	1	1	1	1	1	1	1	1	1	1	1	1	1	1	1	1	1	1	1	1	1	1	1	1	1	1	1	1	1	1	1	1	1	1	1	1	1	1	1	1	1	1	1	1	1	1	1	1	1	1	1	1	1	1	1	1	1	1	1	1	1	1	1	1	1	1	1	1	1	1	1	1	1	1	1	1	1	1	1	1	1	1	1	1	1	1	1	1	1	1	1	1	1	1	1	1	1	1	1	1	1	1	1	1	1	1	1	1	1	1	1	1	1	1	1	1	1	1	1	1	1	1	1	1	1	1	1	1	1	1	1	1	1	1	1	1	1	1	1	1	1	1	1	1	1	1	1	1	1	1	1	1	1	1	1	1	1	1	1	1	1	1	1	1	1	1	1	1	1	1	1	1	1	1	1	</DataArray>
<DataArray type="Int32" Name="row" format="ascii">1	1	1	1	1	1	1	1	1	1	1	1	1	1	1	2	2	2	2	2	2	2	2	2	2	2	2	2	2	2	3	3	3	3	3	3	3	3	3	3	3	3	3	3	3	4	4	4	4	4	4	4	4	4	4	4	4	4	4	4	5	5	5	5	5	5	5	5	5	5	5	5	5	5	5	6	6	6	6	6	6	6	6	6	6	6	6	6	6	6	6	6	6	6	6	6	6	6	6	6	6	6	6	6	6	6	6	6	6	6	6	7	7	7	7	7	7	7	7	7	7	7	7	7	7	7	7	7	7	7	7	7	7	7	7	7	7	7	7	7	7	7	7	7	7	7	7	8	8	8	8	8	8	8	8	8	8	8	8	8	8	8	8	8	8	8	8	8	8	8	8	8	8	8	8	8	8	8	8	8	8	8	8	9	9	9	9	9	9	9	9	9	9	9	9	9	9	9	9	9	9	9	9	9	9	9	9	9	9	9	9	9	9	9	9	9	9	9	9	10	10	10	10	10	10	10	10	10	10	10	10	10	10	10	10	10	10	10	10	10	10	10	10	10	10	10	10	10	10	10	10	10	10	10	10	11	11	11	11	11	11	11	11	11	11	11	11	11	11	11	11	11	11	11	11	11	11	11	11	11	11	11	11	11	11	11	11	11	11	11	11	12	12	12	12	12	12	12	12	12	12	12	12	12	12	12	12	12	12	12	12	12	12	12	12	12	12	12	12	12	12	12	12	12	12	12	12	13	13	13	13	13	13	13	13	13	13	13	13	13	13	13	13	13	13	13	13	13	13	13	13	13	13	13	13	13	13	13	13	13	13	13	13	14	14	14	14	14	14	14	14	14	14	14	14	14	14	14	14	14	14	14	14	14	14	14	14	14	14	14	14	14	14	14	14	14	14	14	14	15	15	15	15	15	15	15	15	15	15	15	15	15	15	15	15	15	15	15	15	15	15	15	15	15	15	15	15	15	15	15	15	15	15	15	15	16	16	16	16	16	16	16	16	16	16	16	16	16	16	16	17	17	17	17	17	17	17	17	17	17	17	17	17	17	17	18	18	18	18	18	18	18	18	18	18	18	18	18	18	18	19	19	19	19	19	19	19	19	19	19	19	19	19	19	19	20	20	20	20	20	20	20	20	20	20	20	20	20	20	20	</DataArray>
<DataArray type="Int32" Name="col" format="ascii">1	2	3	4	5	6	7	8	9	10	11	12	13	14	15	1	2	3	4	5	6	7	8	9	10	11	12	13	14	15	1	2	3	4	5	6	7	8	9	10	11	12	13	14	15	1	2	3	4	5	6	7	8	9	10	11	12	13	14	15	1	2	3	4	5	6	7	8	9	10	11	12	13	14	15	1	2	3	4	5	5	5	5	6	6	6	6	7	7	7	7	8	8	8	8	9	9	9	9	10	10	10	10	11	11	11	11	12	13	14	15	1	2	3	4	5	5	5	5	6	6	6	6	7	7	7	7	8	8	8	8	9	9	9	9	10	10	10	10	11	11	11	11	12	13	14	15	1	2	3	4	5	5	5	5	6	6	6	6	7	7	7	7	8	8	8	8	9	9	9	9	10	10	10	10	11	11	11	11	12	13	14	15	1	2	3	4	5	5	5	5	6	6	6	6	7	7	7	7	8	8	8	8	9	9	9	9	10	10	10	10	11	11	11	11	12	13	14	15	1	2	3	4	5	5	5	5	6	6	6	6	7	7	7	7	8	8	8	8	9	9	9	9	10	10	10	10	11	11	11	11	12	13	14	15	1	2	3	4	5	5	5	5	6	6	6	6	7	7	7	7	8	8	8	8	9	9	9	9	10	10	10	10	11	11	11	11	12	13	14	15	1	2	3	4	5	5	5	5	6	6	6	6	7	7	7	7	8	8	8	8	9	9	9	9	10	10	10	10	11	11	11	11	12	13	14	15	1	2	3	4	5	5	5	5	6	6	6	6	7	7	7	7	8	8	8	8	9	9	9	9	10	10	10	10	11	11	11	11	12	13	14	15	1	2	3	4	5	5	5	5	6	6	6	6	7	7	7	7	8	8	8	8	9	9	9	9	10	10	10	10	11	11	11	11	12	13	14	15	1	2	3	4	5	5	5	5	6	6	6	6	7	7	7	7	8	8	8	8	9	9	9	9	10	10	10	10	11	11	11	11	12	13	14	15	1	2	3	4	5	6	7	8	9	10	11	12	13	14	15	1	2	3	4	5	6	7	8	9	10	11	12	13	14	15	1	2	3	4	5	6	7	8	9	10	11	12	13	14	15	1	2	3	4	5	6	7	8	9	10	11	12	13	14	15	1	2	3	4	5	6	7	8	9	10	11	12	13	14	15	</DataArray>
<DataArray type="Int32" Name="vtkid" format="ascii">0	1	2	3	4	5	6	7	8	9	10	11	12	13	14	15	16	17	18	19	20	21	22	23	24	25	26	27	28	29	30	31	32	33	34	35	36	37	38	39	40	41	42	43	44	45	46	47	48	49	50	51	52	53	54	55	56	57	58	59	60	61	62	63	64	65	66	67	68	69	70	71	72	73	74	75	76	77	78	79	80	81	82	83	84	85	86	87	88	89	90	91	92	93	94	95	96	97	98	99	100	101	102	103	104	105	106	107	108	109	110	111	112	113	114	115	116	117	118	119	120	121	122	123	124	125	126	127	128	129	130	131	132	133	134	135	136	137	138	139	140	141	142	143	144	145	146	147	148	149	150	151	152	153	154	155	156	157	158	159	160	161	162	163	164	165	166	167	168	169	170	171	172	173	174	175	176	177	178	179	180	181	182	183	184	185	186	187	188	189	190	191	192	193	194	195	196	197	198	199	200	201	202	203	204	205	206	207	208	209	210	211	212	213	214	215	216	217	218	219	220	221	222	223	224	225	226	227	228	229	230	231	232	233	234	235	236	237	238	239	240	241	242	243	244	245	246	247	248	249	250	251	252	253	254	255	256	257	258	259	260	261	262	263	264	265	266	267	268	269	270	271	272	273	274	275	276	277	278	279	280	281	282	283	284	285	286	287	288	289	290	291	292	293	294	295	296	297	298	299	300	301	302	303	304	305	306	307	308	309	310	311	312	313	314	315	316	317	318	319	320	321	322	323	324	325	326	327	328	329	330	331	332	333	334	335	336	337	338	339	340	341	342	343	344	345	346	347	348	349	350	351	352	353	354	355	356	357	358	359	360	361	362	363	364	365	366	367	368	369	370	371	372	373	374	375	376	377	378	379	380	381	382	383	384	385	386	387	388	389	390	391	392	393	394	395	396	397	398	399	400	401	402	403	404	405	406	407	408	409	410	411	412	413	414	415	416	417	418	419	420	421	422	423	424	425	426	427	428	429	430	431	432	433	434	435	436	437	438	439	440	441	442	443	444	445	446	447	448	449	450	451	452	453	454	455	456	457	458	459	460	461	462	463	464	465	466	467	468	469	470	471	472	473	474	475	476	477	478	479	480	481	482	483	484	485	486	487	488	489	490	491	492	493	494	495	496	497	498	499	500	501	502	503	504	505	506	507	508	509	</DataArray>
<DataArray type="Float32" Name="top" format="ascii">100	100	100	100	100	100	100	100	100	100	100	100	100	100	100	97.3684	97.3684	97.3684	97.3684	97.3684	97.3684	97.3684	97.3684	97.3684	97.3684	97.3684	97.3684	97.3684	97.3684	97.3684	94.7368	94.7368	94.7368	94.7368	94.7368	94.7368	94.7368	94.7368	94.7368	94.7368	94.7368	94.7368	94.7368	94.7368	94.7368	92.1053	92.1053	92.1053	92.1053	92.1053	92.1053	92.1053	92.1053	92.1053	92.1053	92.1053	92.1053	92.1053	92.1053	92.1053	89.4737	89.4737	89.4737	89.4737	89.4737	89.4737	89.4737	89.4737	89.4737	89.4737	89.4737	89.4737	89.4737	89.4737	89.4737	86.8421	86.8421	86.8421	86.8421	86.8421	86.8421	86.8421	86.8421	86.8421	86.8421	86.8421	86.8421	86.8421	86.8421	86.8421	86.8421	86.8421	86.8421	86.8421	86.8421	86.8421	86.8421	86.8421	86.8421	86.8421	86.8421	86.8421	86.8421	86.8421	86.8421	86.8421	86.8421	86.8421	86.8421	86.8421	86.8421	84.2105	84.2105	84.2105	84.2105	84.2105	84.2105	84.2105	84.2105	84.2105	84.2105	84.2105	84.2105	84.2105	84.2105	84.2105	84.2105	84.2105	84.2105	84.2105	84.2105	84.2105	84.2105	84.2105	84.2105	84.2105	84.2105	84.2105	84.2105	84.2105	84.2105	84.2105	84.2105	84.2105	84.2105	84.2105	84.2105	81.5789	81.5789	81.5789	81.5789	81.5789	81.5789	81.5789	81.5789	81.5789	81.5789	81.5789	81.5789	81.5789	81.5789	81.5789	81.5789	81.5789	81.5789	81.5789	81.5789	81.5789	81.5789	81.5789	81.5789	81.5789	81.5789	81.5789	81.5789	81.5789	81.5789	81.5789	81.5789	81.5789	81.5789	81.5789	81.5789	78.9474	78.9474	78.9474	78.9474	78.9474	78.9474	78.9474	78.9474	78.9474	78.9474	78.9474	78.9474	78.9474	78.9474	78.9474	78.9474	78.9474	78.9474	78.9474	78.9474	78.9474	78.9474	78.9474	78.9474	78.9474	78.9474	78.9474	78.9474	78.9474	78.9474	78.9474	78.9474	78.9474	78.9474	78.9474	78.9474	76.3158	76.3158	76.3158	76.3158	76.3158	76.3158	76.3158	76.3158	76.3158	76.3158	76.3158	76.3158	76.3158	76.3158	76.3158	76.3158	76.3158	76.3158	76.3158	76.3158	76.3158	76.3158	76.3158	76.3158	76.3158	76.3158	76.3158	76.3158	76.3158	76.3158	76.3158	76.3158	76.3158	76.3158	76.3158	76.3158	73.6842	73.6842	73.6842	73.6842	73.6842	73.6842	73.6842	73.6842	73.6842	73.6842	73.6842	73.6842	73.6842	73.6842	73.6842	73.6842	73.6842	73.6842	73.6842	73.6842	73.6842	73.6842	73.6842	73.6842	73.6842	73.6842	73.6842	73.6842	73.6842	73.6842	73.6842	73.6842	73.6842	73.6842	73.6842	73.6842	71.0526	71.0526	71.0526	71.0526	71.0526	71.0526	71.0526	71.0526	71.0526	71.0526	71.0526	71.0526	71.0526	71.0526	71.0526	71.0526	71.0526	71.0526	71.0526	71.0526	71.0526	71.0526	71.0526	71.0526	71.0526	71.0526	71.0526	71.0526	71.0526	71.0526	71.0526	71.0526	71.0526	71.0526	71.0526	71.0526	68.4211	68.4211	68.4211	68.4211	68.4211	68.4211	68.4211	68.4211	68.4211	68.4211	68.4211	68.4211	68.4211	68.4211	68.4211	68.4211	68.4211	68.4211	68.4211	68.4211	68.4211	68.4211	68.4211	68.4211	68.4211	68.4211	68.4211	68.4211	68.4211	68.4211	68.4211	68.4211	68.4211	68.4211	68.4211	68.4211	65.7895	65.7895	65.7895	65.7895	65.7895	65.7895	65.7895	65.7895	65.7895	65.7895	65.7895	65.7895	65.7895	65.7895	65.7895	65.7895	65.7895	65.7895	65.7895	65.7895	65.7895	65.7895	65.7895	65.7895	65.7895	65.7895	65.7895	65.7895	65.7895	65.7895	65.7895	65.7895	65.7895	65.7895	65.7895	65.7895	63.1579	63.1579	63.1579	63.1579	63.1579	63.1579	63.1579	63.1579	63.1579	63.1579	63.1579	63.1579	63.1579	63.1579	63.1579	63.1579	63.1579	63.1579	63.1579	63.1579	63.1579	63.1579	63.1579	63.1579	63.1579	63.1579	63.1579	63.1579	63.1579	63.1579	63.1579	63.1579	63.1579	63.1579	63.1579	63.1579	60.5263	60.5263	60.5263	60.5263	60.5263	60.5263	60.5263	60.5263	60.5263	60.5263	60.5263	60.5263	60.5263	60.5263	60.5263	57.8947	57.8947	57.8947	57.8947	57.8947	57.8947	57.8947	57.8947	57.8947	57.8947	57.8947	57.8947	57.8947	57.8947	57.8947	55.2632	55.2632	55.2632	55.2632	55.2632	55.2632	55.2632	55.2632	55.2632	55.2632	55.2632	55.2632	55.2632	55.2632	55.2632	52.6316	52.6316	52.6316	52.6316	52.6316	52.6316	52.6316	52.6316	52.6316	52.6316	52.6316	52.6316	52.6316	52.6316	52.6316	50	50	50	50	50	50	50	50	50	50	50	50	50	50	50	</DataArray>
<DataArray type="Float32" Name="bottom" format="ascii">50	50	50	50	50	50	50	50	50	50	50	50	50	50	50	47.3684	47.3684	47.3684	47.3684	47.3684	47.3684	47.3684	47.3684	47.3684	47.3684	47.3684	47.3684	47.3684	47.3684	47.3684	44.7368	44.7368	44.7368	44.7368	44.7368	44.7368	44.7368	44.7368	44.7368	44.7368	44.7368	44.7368	44.7368	44.7368	44.7368	42.1053	42.1053	42.1053	42.1053	42.1053	42.1053	42.1053	42.1053	42.1053	42.1053	42.1053	42.1053	42.1053	42.1053	42.1053	39.4737	39.4737	39.4737	39.4737	39.4737	39.4737	39.4737	39.4737	39.4737	39.4737	39.4737	39.4737	39.4737	39.4737	39.4737	36.8421	36.8421	36.8421	36.8421	36.8421	36.8421	36.8421	36.8421	36.8421	36.8421	36.8421	36.8421	36.8421	36.8421	36.8421	36.8421	36.8421	36.8421	36.8421	36.8421	36.8421	36.8421	36.8421	36.8421	36.8421	36.8421	36.8421	36.8421	36.8421	36.8421	36.8421	36.8421	36.8421	36.8421	36.8421	36.8421	34.2105	34.2105	34.2105	34.2105	34.2105	34.2105	34.2105	34.2105	34.2105	34.2105	34.2105	34.2105	34.2105	34.2105	34.2105	34.2105	34.2105	34.2105	34.2105	34.2105	34.2105	34.2105	34.2105	34.2105	34.2105	34.2105	34.2105	34.2105	34.2105	34.2105	34.2105	34.2105	34.2105	34.2105	34.2105	34.2105	31.5789	31.5789	31.5789	31.5789	31.5789	31.5789	31.5789	31.5789	31.5789	31.5789	31.5789	31.5789	31.5789	31.5789	31.5789	31.5789	31.5789	31.5789	31.5789	31.5789	31.5789	31.5789	31.5789	31.5789	31.5789	31.5789	31.5789	31.5789	31.5789	31.5789	31.5789	31.5789	31.5789	31.5789	31.5789	31.5789	28.9474	28.9474	28.9474	28.9474	28.9474	28.9474	28.9474	28.9474	28.9474	28.9474	28.9474	28.9474	28.9474	28.9474	28.9474	28.9474	28.9474	28.9474	28.9474	28.9474	28.9474	28.9474	28.9474	28.9474	28.9474	28.9474	28.9474	28.9474	28.9474	28.9474	28.9474	28.9474	28.9474	28.9474	28.9474	28.9474	26.3158	26.3158	26.3158	26.3158	26.3158	26.3158	26.3158	26.3158	26.3158	26.3158	26.3158	26.3158	26.3158	26.3158	26.3158	26.3158	26.3158	26.3158	26.3158	26.3158	26.3158	26.3158	26.3158	26.3158	26.3158	26.3158	26.3158	26.3158	26.3158	26.3158	26.3158	26.3158	26.3158	26.3158	26.3158	26.3158	23.6842	23.6842	23.6842	23.6842	23.6842	23.6842	23.6842	23.6842	23.6842	23.6842	23.6842	23.6842	23.6842	23.6842	23.6842	23.6842	23.6842	23.6842	23.6842	23.6842	23.6842	23.6842	23.6842	23.6842	23.6842	23.6842	23.6842	23.6842	23.6842	23.6842	23.6842	23.6842	23.6842	23.6842	23.6842	23.6842	21.0526	21.0526	21.0526	21.0526	21.0526	21.0526	21.0526	21.0526	21.0526	21.0526	21.0526	21.0526	21.0526	21.0526	21.0526	21.0526	21.0526	21.0526	21.0526	21.0526	21.0526	21.0526	21.0526	21.0526	21.0526	21.0526	21.0526	21.0526	21.0526	21.0526	21.0526	21.0526	21.0526	21.0526	21.0526	21.0526	18.4211	18.4211	18.4211	18.4211	18.4211	18.4211	18.4211	18.4211	18.4211	18.4211	18.4211	18.4211	18.4211	18.4211	18.4211	18.4211	18.4211	18.4211	18.4211	18.4211	18.4211	18.4211	18.4211	18.4211	18.4211	18.4211	18.4211	18.4211	18.4211	18.4211	18.4211	18.4211	18.4211	18.4211	18.4211	18.4211	15.7895	15.7895	15.7895	15.7895	15.7895	15.7895	15.7895	15.7895	15.7895	15.7895	15.7895	15.7895	15.7895	15.7895	15.7895	15.7895	15.7895	15.7895	15.7895	15.7895	15.7895	15.7895	15.7895	15.7895	15.7895	15.7895	15.7895	15.7895	15.7895	15.7895	15.7895	15.7895	15.7895	15.7895	15.7895	15.7895	13.1579	13.1579	13.1579	13.1579	13.1579	13.1579	13.1579	13.1579	13.1579	13.1579	13.1579	13.1579	13.1579	13.1579	13.1579	13.1579	13.1579	13.1579	13.1579	13.1579	13.1579	13.1579	13.1579	13.1579	13.1579	13.1579	13.1579	13.1579	13.1579	13.1579	13.1579	13.1579	13.1579	13.1579	13.1579	13.1579	10.5263	10.5263	10.5263	10.5263	10.5263	10.5263	10.5263	10.5263	10.5263	10.5263	10.5263	10.5263	10.5263	10.5263	10.5263	7.89474	7.89474	7.89474	7.89474	7.89474	7.89474	7.89474	7.89474	7.89474	7.89474	7.89474	7.89474	7.89474	7.89474	7.89474	5.26316	5.26316	5.26316	5.26316	5.26316	5.26316	5.26316	5.26316	5.26316	5.26316	5.26316	5.26316	5.26316	5.26316	5.26316	2.63158	2.63158	2.63158	2.63158	2.63158	2.63158	2.63158	2.63158	2.63158	2.63158	2.63158	2.63158	2.63158	2.63158	2.63158	0	0	0	0	0	0	0	0	0	0	0	0	0	0	0	</DataArray>
<DataArray type="Float32" Name="delr" format="ascii">250	250	250	250	250	250	250	250	250	250	250	250	250	250	250	250	250	250	250	250	250	250	250	250	250	250	250	250	250	250	250	250	250	250	250	250	250	250	250	250	250	250	250	250	250	250	250	250	250	250	250	250	250	250	250	250	250	250	250	250	250	250	250	250	250	250	250	250	250	250	250	250	250	250	250	250	250	250	250	125	125	125	125	125	125	125	125	125	125	125	125	125	125	125	125	125	125	125	125	125	125	125	125	125	125	125	125	250	250	250	250	250	250	250	250	125	125	125	125	125	125	125	125	125	125	125	125	125	125	125	125	125	125	125	125	125	125	125	125	125	125	125	125	250	250	250	250	250	250	250	250	125	125	125	125	125	125	125	125	125	125	125	125	125	125	125	125	125	125	125	125	125	125	125	125	125	125	125	125	250	250	250	250	250	250	250	250	125	125	125	125	125	125	125	125	125	125	125	125	125	125	125	125	125	125	125	125	125	125	125	125	125	125	125	125	250	250	250	250	250	250	250	250	125	125	125	125	125	125	125	125	125	125	125	125	125	125	125	125	125	125	125	125	125	125	125	125	125	125	125	125	250	250	250	250	250	250	250	250	125	125	125	125	125	125	125	125	125	125	125	125	125	125	125	125	125	125	125	125	125	125	125	125	125	125	125	125	250	250	250	250	250	250	250	250	125	125	125	125	125	125	125	125	125	125	125	125	125	125	125	125	125	125	125	125	125	125	125	125	125	125	125	125	250	250	250	250	250	250	250	250	125	125	125	125	125	125	125	125	125	125	125	125	125	125	125	125	125	125	125	125	125	125	125	125	125	125	125	125	250	250	250	250	250	250	250	250	125	125	125	125	125	125	125	125	125	125	125	125	125	125	125	125	125	125	125	125	125	125	125	125	125	125	125	125	250	250	250	250	250	250	250	250	125	125	125	125	125	125	125	125	125	125	125	125	125	125	125	125	125	125	125	125	125	125	125	125	125	125	125	125	250	250	250	250	250	250	250	250	250	250	250	250	250	250	250	250	250	250	250	250	250	250	250	250	250	250	250	250	250	250	250	250	250	250	250	250	250	250	250	250	250	250	250	250	250	250	250	250	250	250	250	250	250	250	250	250	250	250	250	250	250	250	250	250	250	250	250	250	250	250	250	250	250	250	250	250	250	250	250	</DataArray>